#LAMMPS 'data.' description 

       3 atoms
       2 bonds
       1 angles

       2 atom types
       1 bond types
       1 angle types

    0.0 3.1      xlo xhi
    0.0 3.1      ylo yhi
    0.0 3.1      zlo zhi

Atoms

      1    1  2 -0.82    1.55000    1.55000    1.50000
      2    1  1  0.41    1.55000    2.36649    2.07736
      3    1  1  0.41    1.55000    0.73351    2.07736

Bonds

      1   1      1      2
      2   1      1      3

Angles

      1   1      2      1      3
